ITEM: TIMESTEP
0
ITEM: NUMBER OF ATOMS
14547
ITEM: BOX BOUNDS pp pp pp
0.0 100.0
0.0 100.0
0.0 100.0
ITEM: ATOMS id type x y z mol
1 1 14.940124 22.241246 -5.12164 1
2 1 10.609057 20.741516 -4.778618 1
3 1 13.950577 18.681244 -2.38811 1
4 1 12.576145 22.913574 -1.237753 1
5 1 8.245078 21.413844 -0.894731 1
6 1 15.532782 28.645634 -0.430417 1
7 1 16.907213 24.413304 -1.580775 1
8 1 19.863849 30.145364 -0.773439 1
9 1 23.987143 17.448375 -4.224512 1
10 1 18.281644 20.180975 -2.731132 1
11 1 19.271192 23.740976 -5.464662 1
12 1 26.943779 23.180435 -3.417176 1
13 1 21.23828 25.913035 -1.923797 1
14 1 28.31821 18.948105 -4.567534 1
15 1 22.612712 21.680705 -3.074154 1
16 1 -0.61818 30.507545 19.33204 1
17 1 2.338456 36.239606 20.139375 1
18 1 4.305544 38.411664 23.68024 1
19 1 1.348908 32.679604 22.872905 1
20 1 -0.025523 36.911934 24.023262 1
21 1 1.941565 39.083992 27.564127 1
22 1 0.359361 29.119602 25.606434 1
23 1 -1.015071 33.351932 26.756792 1
24 1 3.315997 34.851662 26.41377 1
25 1 -0.630187 25.559601 28.339964 1
26 1 0.347354 24.171658 34.614359 1
27 1 1.336902 27.731659 31.880829 1
28 1 -2.004618 29.791931 29.490321 1
29 1 2.326449 31.291661 29.147299 1
30 1 0.952018 35.523991 30.297657 1
31 1 -1.411961 36.196319 34.181544 1
32 1 -0.03753 31.963989 33.031186 1
33 1 5.283085 37.023721 29.954635 1
34 1 2.919106 37.696049 33.838522 1
35 1 4.293538 33.463719 32.688164 1
36 1 1.929559 34.136048 36.572051 1
37 1 3.30399 29.903718 35.421694 1
38 1 5.271079 32.075776 38.962559 1
39 1 3.896647 36.308106 40.112916 1
40 1 2.314443 26.343716 38.155224 1
41 1 6.260626 35.635778 36.229029 1
42 1 7.238167 34.247835 42.503424 1
43 1 6.272633 40.583722 27.221105 1
44 1 7.250174 39.195779 33.4955 1
45 1 9.217262 41.367838 37.036365 1
46 1 8.227715 37.807836 39.769894 1
47 1 18.654521 7.440698 7.859964 1
48 1 21.996041 5.380427 10.250472 1
49 1 19.632062 6.052755 14.134359 1
50 1 25.337561 3.320155 12.640979 1
51 1 22.973582 3.992484 16.524866 1
52 1 17.268084 6.725083 18.018246 1
53 1 24.348014 -0.239846 15.374509 1
54 1 28.679081 1.259884 15.031487 1
55 1 15.881646 6.009468 28.176527 1
56 1 20.609603 4.664812 20.408753 1
57 1 18.245625 5.33714 24.29264 1
58 1 23.951123 2.604541 22.799261 1
59 1 26.315102 1.932212 18.915374 1
60 1 25.325555 -1.627789 21.648904 1
61 1 22.961576 -0.955461 25.532791 1
62 1 24.928664 1.216597 29.073656 1
63 1 21.587144 3.276869 26.683148 1
64 1 19.223166 3.949197 30.567035 1
65 1 27.292643 0.544269 25.189769 1
66 1 27.689534 -2.300118 17.765017 1
67 1 32.020601 -0.800387 17.421995 1
68 1 31.031054 -4.360389 20.155524 1
69 1 29.656622 -0.128059 21.305882 1
70 1 35.362121 -2.860659 19.812502 1
71 1 30.041506 -7.920391 22.889054 1
72 1 28.667075 -3.688061 24.039411 1
73 1 32.998142 -2.188331 23.696389 1
74 1 34.372573 -6.420661 22.546032 1
75 1 38.703641 -4.92093 22.20301 1
76 1 32.008595 -5.748332 26.429919 1
77 1 30.634163 -1.516002 27.580276 1
78 1 36.339662 -4.248602 26.086897 1
79 1 5.484209 24.930559 10.413908 1
80 1 4.109777 29.162889 11.564266 1
81 1 6.473756 28.490561 7.680379 1
82 1 8.440845 30.662619 11.221244 1
83 1 11.397481 36.394679 12.028579 1
84 1 7.848188 24.258231 6.530021 1
85 1 6.85864 20.698229 9.263551 1
86 1 11.189708 22.197959 8.920529 1
87 1 9.222619 20.025901 5.379664 1
88 1 10.212167 23.585903 2.646134 1
89 1 11.586598 19.353573 1.495777 1
90 1 16.895206 19.46536 7.427149 1
91 1 12.564139 17.965629 7.770172 1
92 1 14.928118 17.293301 3.886285 1
93 1 15.917665 20.853303 1.152755 1
94 1 13.93857 13.7333 6.619814 1
95 1 13.553686 21.525631 5.036642 1
96 1 12.179255 25.757961 6.186999 1
97 1 9.815276 26.430289 10.070886 1
98 1 14.146344 27.930019 9.727864 1
99 1 13.168803 29.317963 3.45347 1
100 1 10.804824 29.990291 7.337357 1
101 1 15.135891 31.490021 6.994335 1
102 1 12.771912 32.162349 10.878222 1
103 1 17.10298 33.662079 10.5352 1
104 1 18.477411 29.42975 9.384842 1
105 1 17.884754 23.025361 4.69362 1
106 1 19.466959 32.989751 6.651313 1
107 1 15.520775 23.69769 8.577507 1
108 1 19.851842 25.19742 8.234485 1
109 1 18.874301 26.585363 1.96009 1
110 1 20.84139 28.757421 5.500955 1
111 1 21.830938 32.317423 2.767426 1
112 1 17.49987 30.817693 3.110448 1
113 1 22.808479 30.92948 9.04182 1
114 1 16.510323 27.257691 5.843977 1
115 1 14.543234 25.085633 2.303112 1
116 1 3.12023 25.602887 14.297795 1
117 1 0.756251 26.275216 18.181682 1
118 1 6.46175 23.542616 16.688303 1
119 1 4.097771 24.214944 20.57219 1
120 1 5.472202 19.982614 19.421833 1
121 1 1.733792 24.887272 24.456077 1
122 1 7.439291 22.154673 22.962698 1
123 1 7.451297 27.102618 13.954773 1
124 1 1.745798 29.835217 15.448153 1
125 1 9.033502 37.067007 15.912466 1
126 1 6.076866 31.334947 15.105131 1
127 1 10.407933 32.834678 14.762109 1
128 1 9.418386 29.274676 17.495638 1
129 1 3.712887 32.007276 18.989018 1
130 1 5.087318 27.774946 17.83866 1
131 1 8.043954 33.507006 18.645996 1
132 1 12.375022 35.006736 18.302974 1
133 1 6.669523 37.739336 19.796353 1
134 1 7.054407 29.947004 21.379525 1
135 1 6.064859 26.387003 24.113055 1
136 1 13.352563 33.618793 24.577368 1
137 1 5.679976 34.179334 22.529883 1
138 1 11.385474 31.446734 21.036503 1
139 1 4.690428 30.619333 25.263412 1
140 1 2.723339 28.447274 21.722547 1
141 1 10.011043 35.679064 22.186861 1
142 1 10.395927 27.886733 23.770033 1
143 1 9.021495 32.119063 24.92039 1
144 1 7.647064 36.351393 26.070748 1
145 1 8.428838 25.714674 20.229168 1
146 1 10.20016 18.637958 11.654059 1
147 1 15.905659 15.905358 10.160679 1
148 1 14.531227 20.137688 11.311037 1
149 1 8.825729 22.870288 12.804416 1
150 1 17.872747 18.077416 13.701544 1
151 1 14.916111 12.345356 12.894209 1
152 1 7.836181 19.310286 15.537946 1
153 1 13.54168 16.577686 14.044566 1
154 1 12.167249 20.810016 15.194924 1
155 1 12.552132 13.017685 16.778096 1
156 1 9.80327 21.482344 19.078811 1
157 1 15.508768 18.749745 17.585431 1
158 1 11.177701 17.250015 17.928453 1
159 1 16.8832 14.517415 16.435074 1
160 1 15.893652 10.957413 19.168603 1
161 1 18.850288 16.689473 19.975939 1
162 1 13.144789 19.422073 21.469318 1
163 1 14.519221 15.189743 20.318961 1
164 1 8.813722 17.922343 21.81234 1
165 1 20.4445 31.601808 12.925707 1
166 1 14.739001 34.334408 14.419087 1
167 1 18.862295 21.637418 10.968014 1
168 1 13.156796 24.370018 12.461394 1
169 1 16.113432 30.102078 13.268729 1
170 1 17.487864 25.869748 12.118372 1
171 1 11.782365 28.602348 13.611751 1
172 1 21.818931 27.369478 11.77535 1
173 1 10.792817 25.042346 16.345281 1
174 1 20.829383 23.809477 14.508879 1
175 1 15.123885 26.542076 16.002259 1
176 1 19.454952 28.041806 15.659237 1
177 1 16.498316 22.309746 14.851901 1
178 1 13.749453 30.774406 17.152616 1
179 1 23.786019 29.541537 15.316215 1
180 1 18.080521 32.274136 16.809594 1
181 1 14.134337 22.982075 18.735788 1
182 1 22.796472 25.981535 18.049744 1
183 1 12.759906 27.214405 19.886146 1
184 1 15.716542 32.946465 20.693481 1
185 1 19.839836 20.249475 17.242409 1
186 1 18.465404 24.481805 18.392766 1
187 1 21.422041 30.213865 19.200102 1
188 1 17.090973 28.714135 19.543124 1
189 1 11.770358 23.654403 22.619676 1
190 1 20.432493 26.653863 21.933631 1
191 1 21.806924 22.421533 20.783274 1
192 1 24.76356 28.153593 21.590609 1
193 1 19.058062 30.886193 23.083989 1
194 1 16.101426 25.154133 22.276653 1
195 1 17.475857 20.921803 21.126296 1
196 1 14.726994 29.386463 23.427011 1
197 1 15.728548 37.894409 11.685557 1
198 1 18.685184 43.626469 12.492892 1
199 1 20.059616 39.39414 11.342535 1
200 1 18.092527 37.222081 7.80167 1
201 1 21.434047 35.16181 10.192178 1
202 1 25.765115 36.66154 9.849156 1
203 1 23.798026 34.489481 6.308291 1
204 1 16.321206 44.298798 16.376779 1
205 1 13.957227 44.971126 20.260666 1
206 1 11.000591 39.239066 19.453331 1
207 1 18.288294 46.470856 19.917644 1
208 1 15.331658 40.738796 19.110309 1
209 1 13.364569 38.566738 15.569444 1
210 1 8.636612 39.911394 23.337218 1
211 1 11.978132 37.851123 25.727726 1
212 1 14.934768 43.583183 26.535061 1
213 1 12.967679 41.411124 22.994196 1
214 1 10.6037 42.083453 26.878083 1
215 1 14.34211 37.178794 21.843839 1
216 1 17.298747 42.910855 22.651174 1
217 1 16.309199 39.350853 25.384704 1
218 1 19.265835 45.082913 26.192039 1
219 1 20.652273 45.798528 16.033757 1
220 1 17.695637 40.066468 15.226422 1
221 1 19.070068 35.834138 14.076065 1
222 1 22.026704 41.566198 14.8834 1
223 1 24.775567 33.101538 12.582685 1
224 1 27.732203 38.833598 13.390021 1
225 1 23.401136 37.333868 13.733043 1
226 1 29.699292 41.005657 16.930885 1
227 1 19.662725 42.238526 18.767287 1
228 1 23.993793 43.738256 18.424265 1
229 1 21.037157 38.006196 17.61693 1
230 1 22.411588 33.773867 16.466572 1
231 1 25.368224 39.505927 17.273908 1
232 1 26.742656 35.273597 16.12355 1
233 1 16.706089 36.506466 17.959952 1
234 1 25.753108 31.713595 18.85708 1
235 1 20.047609 34.446195 20.350459 1
236 1 24.378677 35.945925 20.007437 1
237 1 27.335313 41.677985 20.814772 1
238 1 23.004245 40.178255 21.157795 1
239 1 21.629814 44.410585 22.308152 1
240 1 28.709744 37.445655 19.664415 1
241 1 18.673178 38.678525 21.500817 1
242 1 24.971334 42.350313 24.69866 1
243 1 22.014698 36.618253 23.891324 1
244 1 23.389129 32.385923 22.740967 1
245 1 17.68363 35.118523 24.234346 1
246 1 20.640266 40.850583 25.041682 1
247 1 27.720197 33.885654 22.397945 1
248 1 30.676833 39.617714 23.20528 1
249 1 26.345765 38.117983 23.548302 1
250 1 20.255383 48.642915 23.458509 1
251 1 22.619362 47.970586 19.574622 1
252 1 23.596903 46.582643 25.849017 1
253 1 30.291949 47.410045 21.622108 1
254 1 32.259037 49.582104 25.162973 1
255 1 33.633469 45.349774 24.012615 1
256 1 24.58645 50.142645 23.115487 1
257 1 25.960881 45.910315 21.96513 1
258 1 27.92797 48.082373 25.505995 1
259 1 31.66638 43.177715 20.47175 1
260 1 29.302401 43.850043 24.355637 1
261 1 16.302549 13.060971 2.735927 1
262 1 17.292097 16.620973 0.002397 1
263 1 21.623164 18.120703 -0.340625 1
264 1 19.259185 18.793031 3.543262 1
265 1 19.644069 11.0007 5.126435 1
266 1 18.269638 15.23303 6.276792 1
267 1 20.633617 14.560701 2.392905 1
268 1 22.600705 16.73276 5.93377 1
269 1 23.975136 12.50043 4.783413 1
270 1 24.964684 16.060432 2.049883 1
271 1 27.328663 15.388103 -1.834004 1
272 1 28.306204 14.00016 4.440391 1
273 1 20.248733 22.353033 0.809733 1
274 1 23.590253 20.292762 3.20024 1
275 1 21.226274 20.96509 7.084127 1
276 1 24.5798 23.852763 0.466711 1
277 1 25.557341 22.46482 6.741105 1
278 1 22.215821 24.525091 4.350598 1
279 1 24.18291 26.69715 7.891463 1
280 1 25.172457 30.257152 5.157933 1
281 1 23.205369 28.085093 1.617068 1
282 1 26.546889 26.024822 4.007576 1
283 1 28.513977 28.19688 7.548441 1
284 1 30.877956 27.524552 3.664554 1
285 1 26.931773 18.23249 5.590748 1
286 1 27.92132 21.792492 2.857218 1
287 1 25.954232 19.620433 -0.683647 1
288 1 28.910868 25.352493 0.123689 1
289 1 29.888409 23.96455 6.398083 1
290 1 31.26284 19.73222 5.247726 1
291 1 29.295751 17.560162 1.706861 1
292 1 30.285299 21.120163 -1.026669 1
293 1 32.252388 23.292222 2.514196 1
294 1 34.219476 25.46428 6.055061 1
295 1 22.985589 8.940428 7.516942 1
296 1 17.28009 11.673028 9.010322 1
297 1 27.316656 10.440159 7.17392 1
298 1 21.611158 13.172758 8.6673 1
299 1 20.236726 17.405088 9.817657 1
300 1 25.942225 14.672489 8.324278 1
301 1 29.283745 12.612217 10.714785 1
302 1 20.62161 9.612757 11.400829 1
303 1 19.247179 13.845087 12.551187 1
304 1 26.327109 6.880157 9.90745 1
305 1 24.952677 11.112487 11.057807 1
306 1 23.578246 15.344817 12.208165 1
307 1 28.294197 9.052215 13.448315 1
308 1 18.257631 10.285085 15.284716 1
309 1 27.30465 5.492214 16.181844 1
310 1 25.930218 9.724544 17.332202 1
311 1 23.96313 7.552485 13.791337 1
312 1 30.261286 11.224274 16.98918 1
313 1 21.214267 16.017145 16.092052 1
314 1 26.919766 13.284545 14.598672 1
315 1 24.555787 13.956874 18.482559 1
316 1 21.599151 8.224814 17.675224 1
317 1 20.22472 12.457143 18.825581 1
318 1 22.588699 11.784815 14.941694 1
319 1 27.52443 24.636878 10.28197 1
320 1 33.229929 21.904279 8.788591 1
321 1 24.567794 18.904818 9.474635 1
322 1 30.273292 16.172219 7.981256 1
323 1 31.855497 26.136609 9.938948 1
324 1 26.149998 28.869208 11.432328 1
325 1 23.193362 23.137148 10.624992 1
326 1 28.898861 20.404549 9.131613 1
327 1 22.203815 19.577147 13.358522 1
328 1 35.197017 24.076337 12.329456 1
329 1 27.909314 16.844547 11.865143 1
330 1 32.240381 18.344277 11.52212 1
331 1 25.160451 25.309207 14.165857 1
332 1 26.534882 21.076877 13.0155 1
333 1 29.491518 26.808937 13.822835 1
334 1 30.86595 22.576607 12.672478 1
335 1 28.501971 23.248935 16.556365 1
336 1 25.545335 17.516875 15.74903 1
337 1 24.170903 21.749205 16.899387 1
338 1 27.127539 27.481265 17.706722 1
339 1 34.20747 20.516336 15.062985 1
340 1 32.833038 24.748665 16.213343 1
341 1 29.876402 19.016605 15.406008 1
342 1 31.250833 14.784276 14.25565 1
343 1 28.886855 15.456604 18.139537 1
344 1 30.469059 25.420994 20.09723 1
345 1 23.181356 18.189204 19.632917 1
346 1 36.174558 22.688394 18.60385 1
347 1 33.217922 16.956334 17.796515 1
348 1 31.843491 21.188664 18.946872 1
349 1 27.512423 19.688934 19.289895 1
350 1 26.137992 23.921264 20.440252 1
351 1 29.680635 9.76783 3.290033 1
352 1 30.670183 13.327832 0.556504 1
353 1 34.011703 11.267561 2.947011 1
354 1 32.637271 15.49989 4.097369 1
355 1 35.00125 14.827562 0.213481 1
356 1 31.65973 16.887834 -2.177026 1
357 1 36.968339 16.999621 3.754346 1
358 1 35.593907 21.23195 4.904704 1
359 1 33.626819 19.059892 1.363839 1
360 1 35.990798 18.387564 -2.520048 1
361 1 37.957886 20.559622 1.020817 1
362 1 39.924975 22.731681 4.561682 1
363 1 41.299406 18.499351 3.411324 1
364 1 37.353223 9.207289 5.337519 1
365 1 33.022155 7.707559 5.680541 1
366 1 31.647724 11.939889 6.830898 1
367 1 34.989244 9.879617 9.221406 1
368 1 30.658176 8.379887 9.564428 1
369 1 32.032608 4.147557 8.41407 1
370 1 36.363675 5.647287 8.071048 1
371 1 35.374128 2.087286 10.804578 1
372 1 33.999696 6.319616 11.954935 1
373 1 32.625265 10.551946 13.105293 1
374 1 29.668629 4.819886 12.297957 1
375 1 38.330764 7.819346 11.611913 1
376 1 41.672284 5.759075 14.002421 1
377 1 35.966785 8.491674 15.4958 1
378 1 37.341216 4.259344 14.345443 1
379 1 33.010149 2.759614 14.688465 1
380 1 31.635717 6.991944 15.838822 1
381 1 35.978791 13.439619 6.487876 1
382 1 34.60436 17.671949 7.638233 1
383 1 43.266495 20.671409 6.952189 1
384 1 38.935427 19.171679 7.295211 1
385 1 37.560996 23.404009 8.445569 1
386 1 40.309859 14.939349 6.144854 1
387 1 40.902516 21.343738 10.836076 1
388 1 42.276947 17.111408 9.685719 1
389 1 33.614812 14.111947 10.371763 1
390 1 36.571448 19.844007 11.179098 1
391 1 37.94588 15.611677 10.028741 1
392 1 39.320311 11.379348 8.878384 1
393 1 41.2874 13.551406 12.419249 1
394 1 36.956332 12.051676 12.762271 1
395 1 45.618467 15.051136 12.076227 1
396 1 44.244036 19.283466 13.226584 1
397 1 35.581901 16.284006 13.912628 1
398 1 39.912968 17.783736 13.569606 1
399 1 38.538537 22.016066 14.719963 1
400 1 47.585556 17.223195 15.617092 1
401 1 44.62892 11.491135 14.809756 1
402 1 38.923421 14.223734 16.303136 1
403 1 40.297852 9.991404 15.152778 1
404 1 34.592353 12.724004 16.646158 1
405 1 43.254488 15.723464 15.960114 1
406 1 37.548989 18.456064 17.453493 1
407 1 41.880057 19.955794 17.110471 1
408 1 27.139546 32.42921 8.698798 1
409 1 32.845045 29.69661 7.205419 1
410 1 36.186565 27.636339 9.595926 1
411 1 34.812133 31.868669 10.746284 1
412 1 30.481066 30.368939 11.089306 1
413 1 29.106634 34.601268 12.239663 1
414 1 31.073723 36.773327 15.780528 1
415 1 33.822586 28.308667 13.479813 1
416 1 28.117087 31.041267 14.973193 1
417 1 38.153653 29.808397 13.136791 1
418 1 36.779222 34.040727 14.287149 1
419 1 32.448154 32.540997 14.630171 1
420 1 37.164106 26.248396 15.870321 1
421 1 35.789674 30.480726 17.020678 1
422 1 33.425695 31.153054 20.904565 1
423 1 31.458607 28.980995 17.3637 1
424 1 37.756763 32.652784 20.561543 1
425 1 34.415243 34.713055 18.171036 1
426 1 42.08783 34.152514 20.218521 1
427 1 38.74631 36.212786 17.828014 1
428 1 32.051264 35.385384 22.054923 1
429 1 33.040812 38.945385 19.321393 1
430 1 36.382331 36.885114 21.711901 1
431 1 39.131194 28.420454 19.411186 1
432 1 30.084175 33.213325 18.514058 1
433 1 29.094628 29.653324 21.247587 1
434 1 34.800127 26.920724 19.754208 1
435 1 40.120742 31.980456 16.677656 1
436 1 39.338968 42.617174 22.519236 1
437 1 35.0079 41.117444 22.862258 1
438 1 40.713399 38.384844 21.368879 1
439 1 41.892063 24.903739 8.102547 1
440 1 39.528085 25.576067 11.986434 1
441 1 43.859152 27.075798 11.643412 1
442 1 45.233583 22.843468 10.493054 1
443 1 47.200672 25.015526 14.033919 1
444 1 45.826241 29.247856 15.184277 1
445 1 42.869604 23.515796 14.376941 1
446 1 41.495173 27.748126 15.527299 1
447 1 40.505626 24.188124 18.260828 1
448 1 43.462262 29.920184 19.068164 1
449 1 44.836693 25.687854 17.917806 1
450 1 46.211124 21.455525 16.767449 1
451 1 5.075312 22.827001 26.846585 1
452 1 6.449743 18.594671 25.696227 1
453 1 4.085764 19.266999 29.580114 1
454 1 8.416832 20.76673 29.237092 1
455 1 2.711333 23.499329 30.730472 1
456 1 7.427284 17.206728 31.970622 1
457 1 6.052853 21.439058 33.120979 1
458 1 3.688874 22.111386 37.004866 1
459 1 9.394373 19.378786 35.511487 1
460 1 5.063305 17.879056 35.854509 1
461 1 10.988584 34.291121 28.461255 1
462 1 9.406379 24.326731 26.503563 1
463 1 3.70088 27.059331 27.996942 1
464 1 7.0424 24.999059 30.38745 1
465 1 8.031948 28.559061 27.65392 1
466 1 11.373468 26.49879 30.044428 1
467 1 5.667969 29.231389 31.537807 1
468 1 9.999036 30.73112 31.194785 1
469 1 12.363015 30.058791 27.310898 1
470 1 6.657517 32.791391 28.804277 1
471 1 14.330104 32.23085 30.851763 1
472 1 8.624605 34.963449 32.345142 1
473 1 10.38392 22.938788 32.777957 1
474 1 7.635058 31.403448 35.078672 1
475 1 11.966125 32.903178 34.73565 1
476 1 9.009489 27.171118 33.928315 1
477 1 13.340556 28.670848 33.585292 1
478 1 4.678421 25.671388 34.271337 1
479 1 9.602146 33.575506 38.619537 1
480 1 6.64551 27.843446 37.812202 1
481 1 12.351009 25.110847 36.318822 1
482 1 10.976577 29.343176 37.46918 1
483 1 8.019941 23.611116 36.661844 1
484 1 15.307645 30.842907 37.126157 1
485 1 16.486309 17.361802 23.859826 1
486 1 13.529673 11.629742 23.05249 1
487 1 12.155242 15.862071 24.202848 1
488 1 17.860741 13.129472 22.709468 1
489 1 10.780811 20.094401 25.353205 1
490 1 9.791263 16.5344 28.086735 1
491 1 15.496762 13.8018 26.593355 1
492 1 16.871193 9.56947 25.442998 1
493 1 11.165694 12.30207 26.936377 1
494 1 19.827829 15.30153 26.250333 1
495 1 14.12233 18.03413 27.743713 1
496 1 14.507214 10.241798 29.326885 1
497 1 13.132783 14.474128 30.477242 1
498 1 11.758352 18.706458 31.6276 1
499 1 18.838282 11.741529 28.983863 1
500 1 17.46385 15.973858 30.13422 1
501 1 20.80537 13.913587 32.524728 1
502 1 10.768804 15.146457 34.361129 1
503 1 15.099871 16.646187 34.018107 1
504 1 17.848734 8.181527 31.717392 1
505 1 12.143235 10.914127 33.210772 1
506 1 16.474303 12.413857 32.86775 1
507 1 18.453398 19.53386 27.400691 1
508 1 15.111878 21.594131 25.010183 1
509 1 20.817377 18.861532 23.516804 1
510 1 12.747899 22.26646 28.89407 1
511 1 15.704535 27.99852 29.701405 1
512 1 19.442945 23.093862 24.667161 1
513 1 13.737447 25.826461 26.16054 1
514 1 21.410034 25.26592 28.208026 1
515 1 22.784465 21.03359 27.057669 1
516 1 23.774013 24.593592 24.324139 1
517 1 17.078967 23.76619 28.551048 1
518 1 18.068514 27.326192 25.817518 1
519 1 22.399582 28.825922 25.474496 1
520 1 16.694083 31.558521 26.967876 1
521 1 20.035603 29.49825 29.358383 1
522 1 25.741101 26.76565 27.865004 1
523 1 17.671624 30.170578 33.24227 1
524 1 16.682076 26.610577 35.9758 1
525 1 19.046055 25.938248 32.091913 1
526 1 21.794918 17.473589 29.791198 1
527 1 16.089419 20.206188 31.284578 1
528 1 13.72544 20.878517 35.168465 1
529 1 22.387575 23.877977 34.482421 1
530 1 24.751554 23.205649 30.598534 1
531 1 14.714988 24.438518 32.434935 1
532 1 19.430939 18.145917 33.675085 1
533 1 18.056508 22.378247 34.825443 1
534 1 23.377123 27.437979 31.748891 1
535 1 20.420486 21.705919 30.941556 1
536 1 26.718642 25.377707 34.139399 1
537 1 21.013144 28.110307 35.632778 1
538 1 23.762006 19.645647 33.332063 1
539 1 7.030394 20.051115 39.395374 1
540 1 8.404825 15.818785 38.245016 1
541 1 10.371914 17.990843 41.785881 1
542 1 5.655962 24.283445 40.545731 1
543 1 11.361461 21.550845 39.052352 1
544 1 9.98703 25.783175 40.202709 1
545 1 8.612598 30.015505 41.353067 1
546 1 14.318097 27.282905 39.859687 1
547 1 12.943666 31.515235 41.010044 1
548 1 10.579687 32.187563 44.893931 1
549 1 8.997482 22.223173 42.936239 1
550 1 7.623051 26.455503 44.086596 1
551 1 11.954118 27.955233 43.743574 1
552 1 13.32855 23.722903 42.593217 1
553 1 16.285186 29.454963 43.400552 1
554 1 10.964571 24.395232 46.477104 1
555 1 15.295638 25.894962 46.134082 1
556 1 12.735893 17.318515 37.901994 1
557 1 18.441391 14.585915 36.408615 1
558 1 14.110324 13.086185 36.751637 1
559 1 19.815823 10.353585 35.258257 1
560 1 21.782911 12.525644 38.799122 1
561 1 16.077412 15.258244 40.292502 1
562 1 22.772459 16.085645 36.065593 1
563 1 17.06696 18.818245 37.558972 1
564 1 21.398027 20.317975 37.21595 1
565 1 15.692529 23.050575 38.70933 1
566 1 20.023596 24.550305 38.366308 1
567 1 18.649165 28.782635 39.516665 1
568 1 25.729095 21.817706 36.872928 1
569 1 24.354664 26.050035 38.023286 1
570 1 23.365116 22.490034 40.756815 1
571 1 24.739547 18.257704 39.606458 1
572 1 14.702981 19.490573 41.442859 1
573 1 19.034049 20.990304 41.099837 1
574 1 27.696183 23.989764 40.413793 1
575 1 20.40848 16.757974 39.94948 1
576 1 17.659617 25.222634 42.250195 1
577 1 21.990685 26.722364 41.907173 1
578 1 22.375568 18.930032 43.490345 1
579 1 22.968226 25.334421 48.181567 1
580 1 25.332205 24.662092 44.29768 1
581 1 18.044501 17.430302 43.833367 1
582 1 28.673724 22.601821 46.688188 1
583 1 24.342657 21.102091 47.03121 1
584 1 26.706636 20.429762 43.147323 1
585 1 16.67007 21.662632 44.983724 1
586 1 21.001137 23.162362 44.640702 1
587 1 23.75 14.697702 42.339987 1
588 1 19.626706 27.394692 45.79106 1
589 1 18.637158 23.83469 48.524589 1
590 1 9.614153 38.523451 29.611613 1
591 1 15.319651 35.790851 28.118233 1
592 1 13.94522 40.023181 29.268591 1
593 1 18.276288 41.522911 28.925569 1
594 1 16.901856 45.755241 30.075926 1
595 1 17.28674 37.96291 31.659098 1
596 1 12.955673 36.46318 32.00212 1
597 1 11.581241 40.69551 33.152478 1
598 1 15.912309 42.19524 32.809456 1
599 1 20.243376 43.69497 32.466434 1
600 1 13.54833 42.867568 36.693343 1
601 1 19.253828 40.134968 35.199963 1
602 1 16.297192 34.402908 34.392628 1
603 1 17.879397 44.367298 36.350321 1
604 1 14.922761 38.635238 35.542985 1
605 1 10.591694 37.135508 35.886007 1
606 1 13.933213 35.075236 38.276515 1
607 1 18.264281 36.574967 37.933493 1
608 1 21.220917 42.307027 38.740828 1
609 1 16.88985 40.807297 39.08385 1
610 1 12.558782 39.307566 39.426872 1
611 1 21.02515 33.058252 26.624854 1
612 1 29.687285 36.057712 25.93881 1
613 1 19.650719 37.290582 27.775211 1
614 1 18.661171 33.73058 30.508741 1
615 1 22.607355 43.022642 28.582547 1
616 1 21.617807 39.46264 31.316076 1
617 1 25.948875 40.96237 30.973054 1
618 1 24.36667 30.99798 29.015361 1
619 1 26.730649 30.325652 25.131474 1
620 1 27.323306 36.73004 29.822697 1
621 1 28.697738 32.49771 28.672339 1
622 1 28.312854 40.290042 27.089167 1
623 1 31.654374 38.22977 29.479675 1
624 1 25.356218 34.557982 26.281832 1
625 1 23.981786 38.790312 27.432189 1
626 1 22.992239 35.23031 30.165719 1
627 1 20.62826 35.902638 34.049606 1
628 1 26.333759 33.170039 32.556226 1
629 1 27.70819 28.937709 31.405869 1
630 1 24.959327 37.402369 33.706584 1
631 1 29.290395 38.902099 33.363562 1
632 1 22.002691 31.670308 32.899248 1
633 1 23.584896 41.634698 34.856941 1
634 1 30.664826 34.669769 32.213204 1
635 1 22.595348 38.074697 37.590471 1
636 1 32.631915 36.841827 35.754069 1
637 1 28.300847 35.342097 36.097091 1
638 1 23.96978 33.842367 36.440113 1
639 1 26.926416 39.574427 37.247449 1
640 1 19.638712 32.342637 36.783135 1
641 1 29.675279 31.109767 34.946734 1
642 1 25.344211 29.610037 35.289756 1
643 1 21.232924 47.254971 29.732904 1
644 1 22.210465 45.867028 36.007299 1
645 1 25.563991 48.754702 29.389882 1
646 1 34.226126 51.754162 28.703838 1
647 1 29.895059 50.254432 29.04686 1
648 1 31.26949 46.022102 27.896502 1
649 1 26.938422 44.522372 28.239524 1
650 1 35.600557 47.521832 27.55348 1
651 1 32.643921 41.789772 26.746145 1
652 1 28.905511 46.69443 31.780389 1
653 1 24.574443 45.1947 32.123412 1
654 1 30.279942 42.4621 30.630032 1
655 1 34.61101 43.961831 30.28701 1
656 1 33.236578 48.19416 31.437367 1
657 1 30.872599 48.866489 35.321254 1
658 1 36.578098 46.133889 33.827875 1
659 1 33.621462 40.401829 33.02054 1
660 1 27.915963 43.134429 34.513919 1
661 1 34.214119 46.806217 37.711762 1
662 1 32.247031 44.634159 34.170897 1
663 1 26.541532 47.366759 35.664276 1
664 1 29.883052 45.306487 38.054784 1
665 1 35.588551 42.573887 36.561405 1
666 1 31.257483 41.074157 36.904427 1
667 1 25.551984 43.806757 38.397806 1
668 1 20.231369 38.747025 41.474358 1
669 1 11.569235 35.747565 42.160402 1
670 1 17.274733 33.014965 40.667022 1
671 1 15.900302 37.247295 41.81738 1
672 1 14.910754 33.687293 44.550909 1
673 1 19.241822 35.187023 44.207887 1
674 1 24.562437 40.246755 41.131336 1
675 1 21.605801 34.514695 40.324 1
676 1 25.936868 36.014425 39.980978 1
677 1 22.980232 30.282365 39.173643 1
678 1 28.685731 27.549766 37.680263 1
679 1 27.3113 31.782096 38.830621 1
680 1 31.642367 33.281826 38.487599 1
681 1 30.267936 37.514156 39.637956 1
682 1 26.321752 28.222094 41.564151 1
683 1 33.609456 35.453884 42.028464 1
684 1 27.903957 38.186484 43.521843 1
685 1 20.616253 30.954694 43.05753 1
686 1 24.947321 32.454424 42.714508 1
687 1 30.65282 29.721824 41.221128 1
688 1 23.572889 36.686754 43.864865 1
689 1 29.278388 33.954154 42.371486 1
690 1 23.957773 28.894422 45.448038 1
691 1 31.245477 36.126212 45.912351 1
692 1 32.619908 31.893883 44.761993 1
693 1 29.663272 26.161822 43.954658 1
694 1 28.288841 30.394152 45.105015 1
695 1 31.630361 28.333881 47.495523 1
696 1 27.299293 26.834151 47.838545 1
697 1 23.188006 44.479085 42.281693 1
698 1 27.519073 45.978815 41.938671 1
699 1 28.893504 41.746485 40.788314 1
700 1 37.555639 44.745946 40.10227 1
701 1 34.599003 39.013886 39.294934 1
702 1 31.85014 47.478546 41.595649 1
703 1 33.224572 43.246216 40.445292 1
704 1 32.235024 39.686214 43.178821 1
705 1 36.566092 41.185944 42.835799 1
706 1 35.576544 37.625943 45.569329 1
707 1 19.235172 8.897142 21.559111 1
708 1 23.56624 10.396872 21.216089 1
709 1 24.940671 6.164542 20.065731 1
710 1 29.271738 7.664272 19.722709 1
711 1 22.191808 14.629202 22.366446 1
712 1 27.897307 11.896602 20.873067 1
713 1 31.238827 9.836331 23.263574 1
714 1 26.907759 8.336601 23.606596 1
715 1 21.202261 11.0692 25.099976 1
716 1 22.576692 6.83687 23.949618 1
717 1 28.282191 4.104271 22.456239 1
718 1 25.533328 12.56893 24.756954 1
719 1 30.249279 6.276329 25.997104 1
720 1 23.169349 13.241259 28.640841 1
721 1 28.874848 10.508659 27.147461 1
722 1 24.543781 9.008929 27.490483 1
723 1 20.212713 7.509199 27.833505 1
724 1 25.918212 4.776599 26.340126 1
725 1 32.216368 8.448388 29.537969 1
726 1 22.179802 9.681257 31.37437 1
727 1 26.510869 11.180987 31.031348 1
728 1 23.554233 5.448927 30.224013 1
729 1 29.259732 2.716328 28.730634 1
730 1 27.8853 6.948657 29.880991 1
731 1 33.810579 23.360722 22.487737 1
732 1 26.522876 16.128932 22.023424 1
733 1 32.228374 13.396332 20.530045 1
734 1 30.853943 17.628662 21.680402 1
735 1 29.479512 21.860992 22.83076 1
736 1 25.148444 20.361262 23.173782 1
737 1 28.10508 26.093322 23.981117 1
738 1 35.185011 19.128392 21.33738 1
739 1 24.158897 16.80126 25.907311 1
740 1 29.864396 14.068661 24.413932 1
741 1 32.821032 19.800721 25.221267 1
742 1 27.115533 22.53332 26.714647 1
743 1 28.489964 18.300991 25.564289 1
744 1 37.152099 21.300451 24.878245 1
745 1 34.195463 15.568391 24.07091 1
746 1 31.4466 24.033051 26.371624 1
747 1 29.082621 24.705379 30.255512 1
748 1 36.162552 17.740449 27.611775 1
749 1 26.125985 18.973319 29.448176 1
750 1 31.831484 16.240719 27.954797 1
751 1 33.205915 12.008389 26.804439 1
752 1 27.500417 14.740989 28.297819 1
753 1 34.78812 21.972779 28.762132 1
754 1 30.457053 20.473049 29.105154 1
755 1 35.173004 14.180448 30.345304 1
756 1 29.467505 16.913047 31.838684 1
757 1 25.136438 15.413317 32.181706 1
758 1 33.798573 18.412778 31.495662 1
759 1 30.841937 12.680717 30.688326 1
760 1 32.424141 22.645107 32.646019 1
761 1 38.12964 19.912508 31.15264 1
762 1 28.093074 21.145377 32.989041 1
763 1 30.64617 3.431942 18.572352 1
764 1 36.351669 0.699343 17.078972 1
765 1 33.602806 9.164002 19.379687 1
766 1 40.682736 2.199073 16.73595 1
767 1 34.977237 4.931673 18.22933 1
768 1 39.308305 6.431403 17.886308 1
769 1 42.649825 4.371131 20.276815 1
770 1 36.944326 7.103731 21.770195 1
771 1 38.318757 2.871401 20.619837 1
772 1 32.613258 5.604001 22.113217 1
773 1 33.98769 1.371671 20.962859 1
774 1 39.693188 -1.360929 19.46948 1
775 1 31.623711 2.043999 24.846747 1
776 1 34.580347 7.776059 25.654082 1
777 1 37.32921 -0.6886 23.353367 1
778 1 40.285846 5.04346 24.160702 1
779 1 35.954778 3.543729 24.503724 1
780 1 41.660277 0.81113 23.010345 1
781 1 34.965231 -0.016272 27.237254 1
782 1 43.627365 2.983188 26.55121 1
783 1 33.590799 4.216058 28.387611 1
784 1 39.296298 1.483458 26.894232 1
785 1 37.921867 5.715788 28.044589 1
786 1 40.670729 -2.748872 25.743875 1
787 1 43.639372 7.931133 17.543286 1
788 1 37.933873 10.663733 19.036665 1
789 1 35.569894 11.336061 22.920552 1
790 1 41.275393 8.603461 21.427173 1
791 1 42.264941 12.163463 18.693643 1
792 1 39.900962 12.835791 22.57753 1
793 1 46.596008 13.663193 18.350621 1
794 1 40.890509 16.395793 19.844001 1
795 1 38.52653 17.068121 23.727888 1
796 1 36.559442 14.896063 20.187023 1
797 1 45.606461 10.103191 21.084151 1
798 1 44.232029 14.335521 22.234508 1
799 1 45.221577 17.895523 19.500979 1
800 1 39.516078 20.628123 20.994358 1
801 1 42.857598 18.567851 23.384866 1
802 1 48.563097 15.835251 21.891486 1
803 1 40.493619 19.240179 27.268753 1