ITEM: TIMESTEP
0
ITEM: NUMBER OF ATOMS
4000
ITEM: BOX BOUNDS pp pp pp
0.0000000000000000e+00 6.5000000000000000e+01
0.0000000000000000e+00 6.5000000000000000e+01
0.0000000000000000e+00 6.5000000000000000e+01
ITEM: ATOMS id type x y z vx vy vz 
1 1 0 0 0 -2.21142 1.83288 2.42229 
2 1 3.25 3.25 0 -2.54272 -2.65316 -2.46792 
3 1 3.25 0 3.25 1.43856 0.474357 2.23917 
4 1 0 3.25 3.25 1.53682 -0.898992 -1.68271 
5 1 6.5 0 0 -1.28099 1.60766 2.61964 
6 1 9.75 3.25 0 -1.92632 -0.866266 -2.5609 
7 1 9.75 0 3.25 -1.28639 -1.80294 1.96767 
8 1 6.5 3.25 3.25 -1.5977 2.28376 -1.4459 
9 1 13 0 0 2.3357 2.38796 -1.07473 
10 1 16.25 3.25 0 0.695674 0.0768916 -1.66757 
11 1 16.25 0 3.25 2.22873 -0.889974 2.61049 
12 1 13 3.25 3.25 2.4402 2.36126 -2.46593 
13 1 19.5 0 0 2.29674 2.12445 -0.80229 
14 1 22.75 3.25 0 -2.16084 1.07497 0.434566 
15 1 22.75 0 3.25 -1.4149 -1.74642 2.69012 
16 1 19.5 3.25 3.25 -1.06266 0.177989 1.12303 
17 1 26 0 0 0.55904 0.0045783 -0.684972 
18 1 29.25 3.25 0 0.526854 -0.941335 1.20725 
19 1 29.25 0 3.25 -2.05023 0.18232 -2.43554 
20 1 26 3.25 3.25 0.353502 -1.76698 0.889145 
21 1 32.5 0 0 2.40203 -0.888143 0.658243 
22 1 35.75 3.25 0 -0.220304 -2.18775 -1.97145 
23 1 35.75 0 3.25 0.283053 -2.18385 -1.9306 
24 1 32.5 3.25 3.25 -0.380258 -1.46659 -1.46614 
25 1 39 0 0 0.396959 -2.29984 1.24342 
26 1 42.25 3.25 0 0.445419 -0.547813 -1.18272 
27 1 42.25 0 3.25 2.13554 -1.76089 -0.540216 
28 1 39 3.25 3.25 0.72825 2.12076 2.60224 
29 1 45.5 0 0 0.0479635 1.17561 1.02554 
30 1 48.75 3.25 0 -1.58686 -1.03879 -0.434367 
31 1 48.75 0 3.25 1.57486 0.245679 -1.20204 
32 1 45.5 3.25 3.25 -0.753778 -1.09519 0.756797 
33 1 52 0 0 -1.99054 -0.267921 1.1897 
34 1 55.25 3.25 0 -2.48463 -2.62026 -0.347441 
35 1 55.25 0 3.25 0.7346 -0.231589 0.924563 
36 1 52 3.25 3.25 -2.30948 1.09492 -2.48187 
37 1 58.5 0 0 1.53403 1.3042 2.31799 
38 1 61.75 3.25 0 0.931232 -0.874665 -1.90583 
39 1 61.75 0 3.25 1.43155 2.6239 -0.946608 
40 1 58.5 3.25 3.25 -0.461436 -2.20041 -2.0676 
41 1 0 6.5 0 -1.23458 1.59664 -2.58291 
42 1 3.25 9.75 0 -0.282067 1.58097 1.19596 
43 1 3.25 6.5 3.25 -0.872104 1.09593 -1.87426 
44 1 0 9.75 3.25 -2.5989 2.1914 0.877443 
45 1 6.5 6.5 0 2.09596 -1.52156 2.06674 
46 1 9.75 9.75 0 -0.178697 -1.06318 -1.13828 
47 1 9.75 6.5 3.25 1.72807 0.728462 2.11186 
48 1 6.5 9.75 3.25 0.108623 0.687908 2.33137 
49 1 13 6.5 0 2.17839 -1.48979 1.42617 
50 1 16.25 9.75 0 0.939073 0.0137738 1.13726 
51 1 16.25 6.5 3.25 -0.24639 1.20844 1.89101 
52 1 13 9.75 3.25 -2.72409 -1.96765 -0.959315 
53 1 19.5 6.5 0 -1.31152 1.25168 -2.35396 
54 1 22.75 9.75 0 2.36772 0.592046 0.256343 
55 1 22.75 6.5 3.25 -2.28338 -2.03224 -1.15634 
56 1 19.5 9.75 3.25 -1.86927 -2.11307 -1.38528 
57 1 26 6.5 0 1.21227 -1.00112 0.102592 
58 1 29.25 9.75 0 -0.943118 2.1027 -0.886288 
59 1 29.25 6.5 3.25 -1.21273 -2.11445 2.6702 
60 1 26 9.75 3.25 2.30782 -2.57504 1.44441 
61 1 32.5 6.5 0 2.03735 0.805225 -0.451006 
62 1 35.75 9.75 0 0.100492 0.395926 -1.43077 
63 1 35.75 6.5 3.25 0.358522 0.778412 1.61915 
64 1 32.5 9.75 3.25 -1.02203 1.28444 -2.60907 
65 1 39 6.5 0 1.95627 1.6284 2.09885 
66 1 42.25 9.75 0 -0.478787 0.726602 -1.87832 
67 1 42.25 6.5 3.25 0.167775 2.13422 -0.186761 
68 1 39 9.75 3.25 1.30379 -1.01873 -1.37256 
69 1 45.5 6.5 0 2.30184 0.603071 0.0936242 
70 1 48.75 9.75 0 1.05766 2.14841 -1.75628 
71 1 48.75 6.5 3.25 0.353837 -1.60451 -1.23469 
72 1 45.5 9.75 3.25 1.27126 -2.38427 0.550961 
73 1 52 6.5 0 2.12937 -1.73199 -0.113755 
74 1 55.25 9.75 0 1.05641 -2.42082 2.54129 
75 1 55.25 6.5 3.25 1.1842 1.74761 -1.66397 
76 1 52 9.75 3.25 -2.72041 0.000527542 2.14236 
77 1 58.5 6.5 0 0.00711466 1.89531 -0.993061 
78 1 61.75 9.75 0 -1.20789 -2.48787 -0.770994 
79 1 61.75 6.5 3.25 0.202108 0.993237 1.30203 
80 1 58.5 9.75 3.25 -1.87005 1.19274 -0.17786 
81 1 0 13 0 -1.82017 -0.468499 0.961241 
82 1 3.25 16.25 0 -2.22991 2.06338 -1.64771 
83 1 3.25 13 3.25 -2.21973 -1.36724 -0.686839 
84 1 0 16.25 3.25 1.87207 -0.829978 1.89621 
85 1 6.5 13 0 -2.5713 2.4681 -1.39791 
86 1 9.75 16.25 0 1.62121 -0.581808 0.185878 
87 1 9.75 13 3.25 2.4865 0.575195 0.661793 
88 1 6.5 16.25 3.25 -0.558437 -1.59809 -2.46991 
89 1 13 13 0 0.751998 -2.36531 -2.71896 
90 1 16.25 16.25 0 -1.4553 1.07771 -2.62219 
91 1 16.25 13 3.25 -0.496048 -0.2955 1.3031 
92 1 13 16.25 3.25 -0.251223 1.78954 -0.496802 
93 1 19.5 13 0 -0.509883 1.73432 -1.2936 
94 1 22.75 16.25 0 -1.56894 0.166302 1.06476 
95 1 22.75 13 3.25 -2.38239 -2.46565 1.88761 
96 1 19.5 16.25 3.25 0.0904203 0.208617 -2.28953 
97 1 26 13 0 -0.176008 0.491923 -2.53432 
98 1 29.25 16.25 0 -1.69436 -2.26739 1.32787 
99 1 29.25 13 3.25 1.5272 1.17526 0.658932 
100 1 26 16.25 3.25 0.462234 -1.56973 -0.383308 
101 1 32.5 13 0 -2.09744 -2.4467 -1.47973 
102 1 35.75 16.25 0 1.03717 1.42917 2.62232 
103 1 35.75 13 3.25 -0.50031 -1.00925 -0.258803 
104 1 32.5 16.25 3.25 1.40136 2.38688 2.66309 
105 1 39 13 0 -2.54444 1.2282 1.24336 
106 1 42.25 16.25 0 -0.533224 2.15874 -2.55731 
107 1 42.25 13 3.25 -0.887751 -0.0640979 1.42697 
108 1 39 16.25 3.25 -1.98714 2.26457 -2.14374 
109 1 45.5 13 0 0.949922 2.34764 -2.35805 
110 1 48.75 16.25 0 -0.935375 1.33045 1.70389 
111 1 48.75 13 3.25 -0.48112 -0.297753 1.62929 
112 1 45.5 16.25 3.25 0.316429 2.40498 1.48789 
113 1 52 13 0 2.02162 -1.8472 -0.210151 
114 1 55.25 16.25 0 0.919171 -1.75968 -1.95717 
115 1 55.25 13 3.25 0.231637 0.939732 2.04613 
116 1 52 16.25 3.25 2.57208 -1.03266 -1.03578 
117 1 58.5 13 0 0.857796 -2.3896 -1.87997 
118 1 61.75 16.25 0 -0.373314 0.705009 0.646531 
119 1 61.75 13 3.25 -0.690391 0.625089 -0.757399 
120 1 58.5 16.25 3.25 -0.405188 -0.4687 -2.41302 
121 1 0 19.5 0 2.45338 0.364406 -2.09704 
122 1 3.25 22.75 0 0.394356 -2.40886 1.78078 
123 1 3.25 19.5 3.25 -0.875992 1.21106 2.2749 
124 1 0 22.75 3.25 2.03933 1.22285 -1.36438 
125 1 6.5 19.5 0 -2.10602 0.683532 -0.318018 
126 1 9.75 22.75 0 -1.11764 -2.08514 -1.10155 
127 1 9.75 19.5 3.25 2.65437 1.98072 -0.154496 
128 1 6.5 22.75 3.25 -1.87042 0.406374 -0.370948 
129 1 13 19.5 0 -1.62639 0.0912064 -1.07605 
130 1 16.25 22.75 0 0.392142 -1.43089 -1.36636 
131 1 16.25 19.5 3.25 -2.54021 1.39694 0.934692 
132 1 13 22.75 3.25 -1.16662 -1.6362 0.613716 
133 1 19.5 19.5 0 -1.31826 2.52229 -1.46913 
134 1 22.75 22.75 0 -0.716772 -0.950786 0.545483 
135 1 22.75 19.5 3.25 -2.66554 0.302956 1.47274 
136 1 19.5 22.75 3.25 -1.82884 1.00702 -1.51925 
137 1 26 19.5 0 2.30522 -2.52226 -0.591577 
138 1 29.25 22.75 0 -0.679474 -1.34132 -1.42337 
139 1 29.25 19.5 3.25 -0.784895 -0.44341 2.63926 
140 1 26 22.75 3.25 0.433562 1.99248 1.27818 
141 1 32.5 19.5 0 1.01988 -0.0199938 0.872696 
142 1 35.75 22.75 0 -1.3319 2.2683 0.503275 
143 1 35.75 19.5 3.25 2.49111 1.67993 0.764101 
144 1 32.5 22.75 3.25 0.777932 2.60379 -0.811563 
145 1 39 19.5 0 0.164588 -2.33161 1.85351 
146 1 42.25 22.75 0 -0.224977 1.09048 -0.601157 
147 1 42.25 19.5 3.25 1.95106 1.37623 1.91777 
148 1 39 22.75 3.25 -0.308494 -0.774364 -1.5837 
149 1 45.5 19.5 0 -0.93745 -0.820169 -2.33568 
150 1 48.75 22.75 0 -1.29454 -2.5531 -0.67674 
151 1 48.75 19.5 3.25 2.51734 0.778179 -2.29342 
152 1 45.5 22.75 3.25 -0.110565 -1.41333 -0.757491 
153 1 52 19.5 0 -1.94703 0.175846 -2.1568 
154 1 55.25 22.75 0 -0.412761 -2.29237 1.35079 
155 1 55.25 19.5 3.25 -0.464446 1.75923 -2.73329 
156 1 52 22.75 3.25 -2.17425 -0.578205 0.744767 
157 1 58.5 19.5 0 -2.35902 -2.4616 -0.968031 
158 1 61.75 22.75 0 -0.532849 -2.44437 -0.55305 
159 1 61.75 19.5 3.25 -2.24385 2.23518 0.216116 
160 1 58.5 22.75 3.25 -2.01918 -1.61045 2.54375 
161 1 0 26 0 -1.08362 2.51405 1.87672 
162 1 3.25 29.25 0 2.49132 -0.262085 1.09544 
163 1 3.25 26 3.25 0.568019 -1.80614 2.57601 
164 1 0 29.25 3.25 1.15082 2.4578 0.0413583 
165 1 6.5 26 0 0.798115 -1.82128 -0.958764 
166 1 9.75 29.25 0 2.48838 -0.480246 -0.112254 
167 1 9.75 26 3.25 -0.980526 0.652574 -2.44294 
168 1 6.5 29.25 3.25 1.32322 -1.78474 2.27962 
169 1 13 26 0 -0.402928 -0.668321 2.52587 
170 1 16.25 29.25 0 -1.59959 -2.1786 -1.05662 
171 1 16.25 26 3.25 -0.311419 -0.834405 -1.6134 
172 1 13 29.25 3.25 1.67095 0.766315 0.117194 
173 1 19.5 26 0 -0.986728 0.0402536 -1.08439 
174 1 22.75 29.25 0 1.9375 2.49015 -1.58133 
175 1 22.75 26 3.25 0.810012 1.77359 -1.40133 
176 1 19.5 29.25 3.25 -1.15849 -1.25923 -1.66916 
177 1 26 26 0 -2.71547 1.19451 2.37187 
178 1 29.25 29.25 0 0.959278 1.41032 2.2172 
179 1 29.25 26 3.25 -2.25471 -0.261247 -1.17525 
180 1 26 29.25 3.25 2.24214 0.778226 -1.51076 
181 1 32.5 26 0 -2.21705 0.0483513 -1.3492 
182 1 35.75 29.25 0 2.16856 2.34522 0.657681 
183 1 35.75 26 3.25 1.25478 -1.09072 -0.50617 
184 1 32.5 29.25 3.25 0.228759 1.64886 2.27752 
185 1 39 26 0 2.43521 0.325151 -1.85515 
186 1 42.25 29.25 0 2.29262 -1.7059 1.99126 
187 1 42.25 26 3.25 2.11576 -1.41971 1.03371 
188 1 39 29.25 3.25 -0.619669 0.177164 -1.83603 
189 1 45.5 26 0 1.86556 -1.1506 2.27242 
190 1 48.75 29.25 0 -1.45339 0.486935 0.906395 
191 1 48.75 26 3.25 -2.20577 -1.28106 2.26485 
192 1 45.5 29.25 3.25 2.34221 -2.64449 1.46059 
193 1 52 26 0 1.31363 0.70923 0.691475 
194 1 55.25 29.25 0 1.94862 -1.40157 0.436429 
195 1 55.25 26 3.25 2.62954 -0.799064 -2.16872 
196 1 52 29.25 3.25 1.15175 1.85526 2.27264 
197 1 58.5 26 0 2.23254 -2.24697 0.829703 
198 1 61.75 29.25 0 1.54142 0.106273 1.23932 
199 1 61.75 26 3.25 2.45317 2.2379 2.38167 
200 1 58.5 29.25 3.25 1.98675 1.27311 -2.10543 
201 1 0 32.5 0 1.2496 -0.887153 0.935059 
202 1 3.25 35.75 0 -0.460469 -2.31313 1.60683 
203 1 3.25 32.5 3.25 -0.806688 -1.27476 -0.951087 
204 1 0 35.75 3.25 0.612973 1.02164 -1.30464 
205 1 6.5 32.5 0 -1.54586 0.861022 -0.852325 
206 1 9.75 35.75 0 2.33798 2.50227 0.203614 
207 1 9.75 32.5 3.25 0.578337 2.51422 -0.78934 
208 1 6.5 35.75 3.25 -2.69961 0.499612 1.24062 
209 1 13 32.5 0 2.50953 0.452294 2.32691 
210 1 16.25 35.75 0 -1.88567 0.500884 0.804785 
211 1 16.25 32.5 3.25 -2.71621 -0.308079 2.62161 
212 1 13 35.75 3.25 -1.60107 0.141572 -0.0215527 
213 1 19.5 32.5 0 1.62546 -0.190018 1.43143 
214 1 22.75 35.75 0 2.05933 -0.781925 2.24455 
215 1 22.75 32.5 3.25 -0.652136 -0.0583138 0.460189 
216 1 19.5 35.75 3.25 -1.66639 -1.37863 -1.12961 
217 1 26 32.5 0 0.113975 -2.09096 -0.758971 
218 1 29.25 35.75 0 0.448882 -2.34522 2.201 
219 1 29.25 32.5 3.25 -1.7029 1.45652 -1.35028 
220 1 26 35.75 3.25 0.480832 0.101212 -2.00693 
221 1 32.5 32.5 0 -1.48084 -2.67349 -0.433814 
222 1 35.75 35.75 0 -0.0504534 -0.204858 -2.53166 
223 1 35.75 32.5 3.25 -0.643926 1.57436 -0.818852 
224 1 32.5 35.75 3.25 -2.35151 -1.65025 -0.843373 
225 1 39 32.5 0 0.0689453 -0.725923 -0.147355 
226 1 42.25 35.75 0 -1.84693 2.49889 -2.00909 
227 1 42.25 32.5 3.25 0.364016 0.38585 -1.67652 
228 1 39 35.75 3.25 -0.910587 -2.06711 1.92158 
229 1 45.5 32.5 0 -1.67561 1.94777 2.54405 
230 1 48.75 35.75 0 -1.55653 1.43508 -1.5974 
231 1 48.75 32.5 3.25 -1.99694 1.22574 -1.94681 
232 1 45.5 35.75 3.25 -0.132943 -1.16178 -0.183529 
233 1 52 32.5 0 1.08259 1.23017 1.64246 
234 1 55.25 35.75 0 -1.92333 0.319267 -2.5651 
235 1 55.25 32.5 3.25 -0.980341 -1.69455 1.7414 
236 1 52 35.75 3.25 -2.67488 1.49751 0.424973 
237 1 58.5 32.5 0 1.00505 1.64798 -1.61079 
238 1 61.75 35.75 0 2.02589 -0.920861 1.66912 
239 1 61.75 32.5 3.25 -1.19974 -1.93344 1.32383 
240 1 58.5 35.75 3.25 -0.915155 -2.46944 -1.8747 
241 1 0 39 0 0.969649 1.17825 1.71546 
242 1 3.25 42.25 0 -2.30846 1.79474 -0.496917 
243 1 3.25 39 3.25 -2.44693 -1.85841 2.26764 
244 1 0 42.25 3.25 0.0216659 1.0054 -1.61906 
245 1 6.5 39 0 -0.726977 2.08672 -2.22351 
246 1 9.75 42.25 0 2.13669 1.3526 -2.49297 
247 1 9.75 39 3.25 0.459194 1.8878 -1.85333 
248 1 6.5 42.25 3.25 0.0730484 -2.67348 -0.378831 
249 1 13 39 0 2.2441 0.993249 1.51214 
250 1 16.25 42.25 0 0.469892 1.68035 2.4182 
251 1 16.25 39 3.25 -0.291043 -2.01149 -1.47364 
252 1 13 42.25 3.25 -0.200093 -0.68072 1.39826 
253 1 19.5 39 0 1.03783 1.72755 -0.624475 
254 1 22.75 42.25 0 -2.68828 -0.0763426 -2.55274 
255 1 22.75 39 3.25 -0.4044 1.87068 -0.460652 
256 1 19.5 42.25 3.25 1.60754 -1.31289 1.79654 
257 1 26 39 0 2.17579 -1.56064 -0.246735 
258 1 29.25 42.25 0 2.40577 1.95383 0.743507 
259 1 29.25 39 3.25 -1.70888 -0.946567 0.548975 
260 1 26 42.25 3.25 1.48332 -0.0479107 0.761428 
261 1 32.5 39 0 -0.523125 -2.64715 0.468728 
262 1 35.75 42.25 0 0.034657 1.16779 0.577392 
263 1 35.75 39 3.25 -0.916816 2.348 -1.65091 
264 1 32.5 42.25 3.25 -1.47392 -1.0641 -0.244779 
265 1 39 39 0 2.55984 0.416984 -2.04805 
266 1 42.25 42.25 0 0.182812 -1.49702 -0.130923 
267 1 42.25 39 3.25 1.60086 0.990835 -0.885814 
268 1 39 42.25 3.25 1.29711 1.21563 -2.68532 
269 1 45.5 39 0 2.19416 1.70773 -0.963668 
270 1 48.75 42.25 0 1.88961 -0.538588 1.14469 
271 1 48.75 39 3.25 -0.720317 -0.519933 -1.68011 
272 1 45.5 42.25 3.25 -1.21386 0.859928 2.58386 
273 1 52 39 0 2.1196 -2.38568 -1.36813 
274 1 55.25 42.25 0 0.361998 -0.794881 2.67591 
275 1 55.25 39 3.25 0.20099 -1.42613 2.18807 
276 1 52 42.25 3.25 -0.823517 -0.47713 -2.29343 
277 1 58.5 39 0 -0.337798 -2.37139 -1.23274 
278 1 61.75 42.25 0 1.35484 0.61218 0.462724 
279 1 61.75 39 3.25 -2.69542 -0.0936012 1.92478 
280 1 58.5 42.25 3.25 -2.48416 -0.32198 -1.93338 
281 1 0 45.5 0 2.03369 -0.727355 -2.39857 
282 1 3.25 48.75 0 -0.145199 0.111991 -0.845006 
283 1 3.25 45.5 3.25 -0.10472 -1.36018 -2.06854 
284 1 0 48.75 3.25 -0.559222 1.56607 1.77904 
285 1 6.5 45.5 0 2.63701 -0.748003 -0.342295 
286 1 9.75 48.75 0 -0.0507345 0.525471 -0.509812 
287 1 9.75 45.5 3.25 -0.987454 -1.2448 0.892069 
288 1 6.5 48.75 3.25 2.45742 -2.69998 1.53537 
289 1 13 45.5 0 -1.76787 0.42318 -1.55137 
290 1 16.25 48.75 0 2.44677 -1.75576 -1.58698 
291 1 16.25 45.5 3.25 -1.44602 -1.0972 -0.294289 
292 1 13 48.75 3.25 -0.473012 -0.392531 1.39677 
293 1 19.5 45.5 0 -2.14122 -1.88245 1.99761 
294 1 22.75 48.75 0 -0.218485 1.11361 0.730738 
295 1 22.75 45.5 3.25 1.85046 1.5423 0.405026 
296 1 19.5 48.75 3.25 -1.53548 0.721625 1.74703 
297 1 26 45.5 0 -0.883994 -2.37203 -1.09437 
298 1 29.25 48.75 0 -2.14497 0.607727 1.98161 
299 1 29.25 45.5 3.25 -1.8109 2.64725 -1.30371 
300 1 26 48.75 3.25 -2.27902 0.334334 -0.248539 
301 1 32.5 45.5 0 -0.64807 -2.62418 -0.825769 
302 1 35.75 48.75 0 1.40199 2.08745 -0.884712 
303 1 35.75 45.5 3.25 -1.98843 2.50775 -0.354538 
304 1 32.5 48.75 3.25 1.45492 2.6636 0.747092 
305 1 39 45.5 0 -1.4641 0.453064 -1.09125 
306 1 42.25 48.75 0 1.22982 -0.575042 -0.639535 
307 1 42.25 45.5 3.25 0.552185 -0.66079 -1.81956 
308 1 39 48.75 3.25 0.404333 1.64962 -1.37804 
309 1 45.5 45.5 0 -2.5309 -0.320943 -0.863401 
310 1 48.75 48.75 0 1.64137 -0.0515467 -0.350539 
311 1 48.75 45.5 3.25 -2.24254 2.44842 0.619788 
312 1 45.5 48.75 3.25 2.55998 -2.54162 1.33297 
313 1 52 45.5 0 0.0539374 -2.0574 1.51671 
314 1 55.25 48.75 0 0.983125 -1.42236 0.114546 
315 1 55.25 45.5 3.25 -1.85035 -0.477733 -1.50734 
316 1 52 48.75 3.25 0.650677 1.98532 0.823149 
317 1 58.5 45.5 0 0.479165 -0.641112 1.64127 
318 1 61.75 48.75 0 -0.230213 0.368346 -1.32501 
319 1 61.75 45.5 3.25 -0.382216 -1.64819 0.93321 
320 1 58.5 48.75 3.25 1.19526 2.19385 -1.66901 
321 1 0 52 0 -0.12199 -2.54049 -1.50006 
322 1 3.25 55.25 0 -2.46906 2.54472 -0.90579 
323 1 3.25 52 3.25 -1.70071 0.110444 0.431342 
324 1 0 55.25 3.25 -1.04416 0.242124 -0.94975 
325 1 6.5 52 0 1.26113 2.00887 -1.59621 
326 1 9.75 55.25 0 1.49136 -1.26276 -1.04463 
327 1 9.75 52 3.25 -0.648671 -1.81914 2.35966 
328 1 6.5 55.25 3.25 -2.48434 2.18331 1.23224 
329 1 13 52 0 -2.0533 -2.38014 -1.07511 
330 1 16.25 55.25 0 -0.223453 -0.566308 -1.10589 
331 1 16.25 52 3.25 0.596218 -2.41513 -0.0205141 
332 1 13 55.25 3.25 -2.73819 1.17389 -0.66909 
333 1 19.5 52 0 0.179654 -0.0255918 -0.486012 
334 1 22.75 55.25 0 0.838934 2.41465 0.238429 
335 1 22.75 52 3.25 2.08871 2.13914 0.671989 
336 1 19.5 55.25 3.25 1.71738 1.19563 -0.65476 
337 1 26 52 0 1.03333 2.35718 -0.0872074 
338 1 29.25 55.25 0 -0.0263433 1.38114 2.70151 
339 1 29.25 52 3.25 -0.505226 -1.8248 -0.0383554 
340 1 26 55.25 3.25 -2.59888 2.50871 -0.647747 
341 1 32.5 52 0 -1.09841 -0.722851 2.38787 
342 1 35.75 55.25 0 2.67745 2.66024 -1.13042 
343 1 35.75 52 3.25 -2.57998 -1.60445 -0.228431 
344 1 32.5 55.25 3.25 -0.862858 -1.68252 2.19227 
345 1 39 52 0 -1.20158 -0.0632368 -0.464515 
346 1 42.25 55.25 0 2.14243 -0.376048 0.255547 
347 1 42.25 52 3.25 0.698591 0.0170196 1.14585 
348 1 39 55.25 3.25 2.37294 1.07867 2.6494 
349 1 45.5 52 0 1.825 -1.04114 -1.68186 
350 1 48.75 55.25 0 2.0933 -2.60029 2.53648 
351 1 48.75 52 3.25 2.15168 2.3517 0.461723 
352 1 45.5 55.25 3.25 2.30343 0.0822305 0.791836 
353 1 52 52 0 -2.16468 2.06616 1.41187 
354 1 55.25 55.25 0 0.672926 -0.434956 -2.55579 
355 1 55.25 52 3.25 -2.64418 -0.619002 2.34762 
356 1 52 55.25 3.25 2.46102 -2.28495 0.604295 
357 1 58.5 52 0 -1.47706 0.697277 1.60733 
358 1 61.75 55.25 0 2.18708 2.66822 2.10386 
359 1 61.75 52 3.25 1.90601 2.30119 2.40361 
360 1 58.5 55.25 3.25 -0.0694195 -2.6077 -1.96175 
361 1 0 58.5 0 -0.235534 -1.79783 0.521509 
362 1 3.25 61.75 0 -1.95859 2.1018 0.399523 
363 1 3.25 58.5 3.25 -1.29583 -2.35551 -1.51855 
364 1 0 61.75 3.25 -2.35843 1.97591 0.836762 
365 1 6.5 58.5 0 0.187554 1.83479 1.75177 
366 1 9.75 61.75 0 2.55356 -1.47605 -2.13593 
367 1 9.75 58.5 3.25 1.25924 -2.47266 -1.53674 
368 1 6.5 61.75 3.25 -2.61096 1.32987 -2.74233 
369 1 13 58.5 0 -1.37888 -1.8008 -0.275129 
370 1 16.25 61.75 0 -0.267591 -0.579757 1.94223 
371 1 16.25 58.5 3.25 1.70968 2.63903 2.41195 
372 1 13 61.75 3.25 -1.73349 -0.0192859 1.86191 
373 1 19.5 58.5 0 -0.891325 -0.13279 -2.19059 
374 1 22.75 61.75 0 -1.04534 2.14603 2.00984 
375 1 22.75 58.5 3.25 -1.97647 1.59437 -2.61556 
376 1 19.5 61.75 3.25 1.88568 -1.17632 0.927902 
377 1 26 58.5 0 -0.748205 -0.145188 2.17074 
378 1 29.25 61.75 0 2.41568 -0.637777 -2.29985 
379 1 29.25 58.5 3.25 0.791126 0.716431 1.70872 
380 1 26 61.75 3.25 -1.04152 0.9764 1.97095 
381 1 32.5 58.5 0 -0.956583 -0.57646 -2.64443 
382 1 35.75 61.75 0 2.10685 1.54886 1.58775 
383 1 35.75 58.5 3.25 0.30083 2.05541 0.670475 
384 1 32.5 61.75 3.25 -1.90999 0.804601 -0.0349883 
385 1 39 58.5 0 -0.553302 -2.57023 0.417886 
386 1 42.25 61.75 0 1.88729 -1.33225 -1.72833 
387 1 42.25 58.5 3.25 1.01647 2.72524 0.399004 
388 1 39 61.75 3.25 0.897283 1.28111 1.48227 
389 1 45.5 58.5 0 0.288444 1.14466 -0.990444 
390 1 48.75 61.75 0 -0.867246 0.924038 0.0839388 
391 1 48.75 58.5 3.25 1.9102 1.87211 1.79393 
392 1 45.5 61.75 3.25 2.04116 -0.601503 1.90531 
393 1 52 58.5 0 -2.32664 1.80961 -1.40093 
394 1 55.25 61.75 0 0.0379486 1.9447 0.0173576 
395 1 55.25 58.5 3.25 1.05115 1.93408 1.50586 
396 1 52 61.75 3.25 -1.48867 2.08061 -1.16443 
397 1 58.5 58.5 0 -1.41915 -2.31392 -0.789241 
398 1 61.75 61.75 0 -1.02552 2.6045 0.249626 
399 1 61.75 58.5 3.25 -0.634581 0.452198 0.709389 
400 1 58.5 61.75 3.25 -2.42201 2.45761 2.37487 
401 1 0 0 6.5 2.28342 1.96901 -0.474105 
402 1 3.25 3.25 6.5 -0.853734 -1.05904 -2.468 
403 1 3.25 0 9.75 0.113372 -1.3123 0.842725 
404 1 0 3.25 9.75 2.21293 0.773623 -2.501 
405 1 6.5 0 6.5 1.95886 1.62181 0.446974 
406 1 9.75 3.25 6.5 -0.13489 -1.16622 1.57121 
407 1 9.75 0 9.75 0.5832 2.44051 -1.35705 
408 1 6.5 3.25 9.75 1.22172 -0.390745 -1.30842 
409 1 13 0 6.5 0.306373 2.47752 -1.16803 
410 1 16.25 3.25 6.5 -1.95145 2.24819 0.840922 
411 1 16.25 0 9.75 -0.819144 2.10977 -2.11367 
412 1 13 3.25 9.75 -0.867118 -2.37343 2.66335 
413 1 19.5 0 6.5 1.80834 2.59492 -2.5929 
414 1 22.75 3.25 6.5 0.888772 0.0389241 -1.61132 
415 1 22.75 0 9.75 -1.40979 2.34055 -1.52926 
416 1 19.5 3.25 9.75 -2.19913 1.11548 -0.559876 
417 1 26 0 6.5 -2.42359 -2.31459 -1.18196 
418 1 29.25 3.25 6.5 -1.58875 -0.0498195 1.40693 
419 1 29.25 0 9.75 -0.607505 -2.65001 1.39685 
420 1 26 3.25 9.75 -0.885655 2.42347 1.25436 
421 1 32.5 0 6.5 -1.21295 -0.25009 0.881218 
422 1 35.75 3.25 6.5 0.0845831 0.282598 -2.50828 
423 1 35.75 0 9.75 -0.513005 -1.66143 2.15249 
424 1 32.5 3.25 9.75 1.04013 2.18201 1.16166 
425 1 39 0 6.5 0.81184 -0.233986 -1.18716 
426 1 42.25 3.25 6.5 -1.6957 2.45028 -0.771998 
427 1 42.25 0 9.75 -0.320767 0.230806 -0.258451 
428 1 39 3.25 9.75 1.86418 -2.46487 -1.5274 
429 1 45.5 0 6.5 1.75391 -1.33207 1.39398 
430 1 48.75 3.25 6.5 -0.0451744 1.24636 1.10426 
431 1 48.75 0 9.75 1.59825 0.702102 0.883776 
432 1 45.5 3.25 9.75 -0.561059 -2.02757 1.04464 
433 1 52 0 6.5 -2.36478 -1.07847 -1.89942 
434 1 55.25 3.25 6.5 -0.0603134 -2.28722 0.713074 
435 1 55.25 0 9.75 -0.483717 -0.312209 -1.34496 
436 1 52 3.25 9.75 2.62656 -1.78131 -0.0757343 
437 1 58.5 0 6.5 1.89594 2.2483 2.70391 
438 1 61.75 3.25 6.5 1.58417 -1.31639 -2.38417 
439 1 61.75 0 9.75 1.8329 0.887542 -2.38698 
440 1 58.5 3.25 9.75 -1.81831 -1.90805 2.49435 
441 1 0 6.5 6.5 -2.30667 -0.779831 -0.745853 
442 1 3.25 9.75 6.5 -2.71082 -2.46369 1.9951 
443 1 3.25 6.5 9.75 1.23867 0.878448 -2.51032 
444 1 0 9.75 9.75 -2.08494 0.44217 1.26132 
445 1 6.5 6.5 6.5 1.30034 0.926897 -0.942495 
446 1 9.75 9.75 6.5 -2.25049 -0.251138 -0.362587 
447 1 9.75 6.5 9.75 2.5394 0.562025 -2.50181 
448 1 6.5 9.75 9.75 -0.751225 -1.82591 -2.39779 
449 1 13 6.5 6.5 1.99107 -2.60903 -2.61878 
450 1 16.25 9.75 6.5 2.26888 -2.41119 0.761204 
451 1 16.25 6.5 9.75 1.17108 -0.670471 -0.897137 
452 1 13 9.75 9.75 1.91362 -0.658778 -0.725616 
453 1 19.5 6.5 6.5 -0.764438 -0.256246 1.05886 
454 1 22.75 9.75 6.5 2.02551 -1.95862 -1.93867 
455 1 22.75 6.5 9.75 0.304524 -1.32261 2.19782 
456 1 19.5 9.75 9.75 -0.751162 -0.758733 -0.68963 
457 1 26 6.5 6.5 -1.40463 1.72537 0.916645 
458 1 29.25 9.75 6.5 0.963616 -2.03832 0.42879 
459 1 29.25 6.5 9.75 -0.297003 1.44427 0.0215922 
460 1 26 9.75 9.75 1.313 0.992229 0.737231 
461 1 32.5 6.5 6.5 1.89416 -0.391882 1.40496 
462 1 35.75 9.75 6.5 -0.991064 -1.91579 -1.99815 
463 1 35.75 6.5 9.75 -1.15796 2.11938 1.2547 
464 1 32.5 9.75 9.75 -0.849715 1.01995 -2.36683 
465 1 39 6.5 6.5 -1.23934 -1.98293 -1.44012 
466 1 42.25 9.75 6.5 1.31091 -1.43591 1.45857 
467 1 42.25 6.5 9.75 0.0432949 -0.926376 1.71812 
468 1 39 9.75 9.75 -1.26469 -2.65378 -1.95872 
469 1 45.5 6.5 6.5 1.58653 0.161365 -0.0944778 
470 1 48.75 9.75 6.5 -2.22048 2.37886 -1.22078 
471 1 48.75 6.5 9.75 0.54848 2.52513 2.5437 
472 1 45.5 9.75 9.75 -1.97603 -1.8357 2.26256 
473 1 52 6.5 6.5 2.04946 2.47008 -0.768852 
474 1 55.25 9.75 6.5 -1.98306 0.0107142 -1.19503 
475 1 55.25 6.5 9.75 2.48722 1.85273 -2.13639 
476 1 52 9.75 9.75 -1.00493 -0.34841 1.13859 
477 1 58.5 6.5 6.5 0.401812 -2.54136 0.266383 
478 1 61.75 9.75 6.5 -2.63967 -1.18546 0.042693 
479 1 61.75 6.5 9.75 1.41293 0.633132 -1.94719 
480 1 58.5 9.75 9.75 -1.05117 2.35295 -0.343418 
481 1 0 13 6.5 -2.55907 0.731068 2.27402 
482 1 3.25 16.25 6.5 -1.71301 0.529111 0.678397 
483 1 3.25 13 9.75 0.331003 1.90196 1.55447 
484 1 0 16.25 9.75 -2.67359 1.34274 0.898073 
485 1 6.5 13 6.5 -0.271091 0.592517 2.70736 
486 1 9.75 16.25 6.5 -0.366404 2.29869 -1.37845 
487 1 9.75 13 9.75 1.57758 2.4292 -0.592023 
488 1 6.5 16.25 9.75 -2.72559 0.210331 -0.755365 
489 1 13 13 6.5 1.05447 -2.26893 2.61267 
490 1 16.25 16.25 6.5 0.830391 0.649519 0.756236 
491 1 16.25 13 9.75 -0.510587 0.803508 -2.0413 
492 1 13 16.25 9.75 -0.978306 -0.230453 -1.80465 
493 1 19.5 13 6.5 0.0760233 -1.76393 -2.52011 
494 1 22.75 16.25 6.5 2.61337 0.157442 -0.569689 
495 1 22.75 13 9.75 1.73192 0.111692 -0.403937 
496 1 19.5 16.25 9.75 0.280491 -1.60369 1.58519 
497 1 26 13 6.5 0.983697 2.73442 1.96028 
498 1 29.25 16.25 6.5 -0.369587 -2.10725 -1.80624 
499 1 29.25 13 9.75 0.672082 1.73554 -2.69823 
500 1 26 16.25 9.75 -1.98689 1.0031 -1.94648 
501 1 32.5 13 6.5 -0.0233675 2.3035 -2.3779 
502 1 35.75 16.25 6.5 -1.87268 0.585035 2.40798 
503 1 35.75 13 9.75 2.41451 1.55851 0.126889 
504 1 32.5 16.25 9.75 -1.67821 1.90967 0.268335 
505 1 39 13 6.5 -2.54827 2.20052 1.45866 
506 1 42.25 16.25 6.5 1.67704 -0.475343 0.470598 
507 1 42.25 13 9.75 -1.26906 0.264063 2.33408 
508 1 39 16.25 9.75 -1.4434 -0.757285 1.82958 
509 1 45.5 13 6.5 1.22578 2.42254 1.96451 
510 1 48.75 16.25 6.5 -0.134635 -2.33351 -2.74588 
511 1 48.75 13 9.75 -1.12459 1.20834 0.175045 
512 1 45.5 16.25 9.75 0.415131 -2.33384 2.53509 
513 1 52 13 6.5 0.626779 -1.48873 -2.63998 
514 1 55.25 16.25 6.5 0.594878 2.35044 1.07267 
515 1 55.25 13 9.75 -0.281626 -1.92265 2.58534 
516 1 52 16.25 9.75 -0.206344 -2.09858 2.11284 
517 1 58.5 13 6.5 0.166146 2.03163 -0.7642 
518 1 61.75 16.25 6.5 -0.165424 -1.62662 -1.99202 
519 1 61.75 13 9.75 -1.72607 -0.782345 0.64932 
520 1 58.5 16.25 9.75 2.54742 -1.00804 -1.72208 
521 1 0 19.5 6.5 2.44018 2.12344 -1.35876 
522 1 3.25 22.75 6.5 -0.30642 1.36145 -1.05472 
523 1 3.25 19.5 9.75 -1.18791 0.608298 0.678176 
524 1 0 22.75 9.75 2.07447 -2.69618 0.0170149 
525 1 6.5 19.5 6.5 0.74491 -1.50169 -2.15637 
526 1 9.75 22.75 6.5 1.46029 0.223974 -0.538893 
527 1 9.75 19.5 9.75 1.14542 -0.988191 -0.855122 
528 1 6.5 22.75 9.75 -1.03768 0.123518 1.98873 
529 1 13 19.5 6.5 -2.1649 -1.74378 -1.94839 
530 1 16.25 22.75 6.5 0.567106 -0.792902 -2.24582 
531 1 16.25 19.5 9.75 -2.03557 1.09942 2.36335 
532 1 13 22.75 9.75 -0.402183 0.953544 -0.360681 
533 1 19.5 19.5 6.5 1.84041 1.6454 -1.26333 
534 1 22.75 22.75 6.5 0.0190995 1.50884 -0.14001 
535 1 22.75 19.5 9.75 1.60371 -0.226504 -0.884664 
536 1 19.5 22.75 9.75 -1.1916 -1.39574 0.348787 
537 1 26 19.5 6.5 2.34598 0.663179 1.24984 
538 1 29.25 22.75 6.5 -0.728798 -1.24435 -2.47281 
539 1 29.25 19.5 9.75 1.10762 1.87827 1.68409 
540 1 26 22.75 9.75 -0.543348 1.10109 -2.28385 
541 1 32.5 19.5 6.5 2.49782 -0.126351 2.40925 
542 1 35.75 22.75 6.5 2.03199 -2.08162 -1.99139 
543 1 35.75 19.5 9.75 -2.17978 -0.93509 2.52731 
544 1 32.5 22.75 9.75 0.763855 0.553324 -1.47119 
545 1 39 19.5 6.5 -2.61442 -2.30165 -1.8108 
546 1 42.25 22.75 6.5 0.319145 -1.02863 1.23079 
547 1 42.25 19.5 9.75 0.833742 2.4201 -0.866909 
548 1 39 22.75 9.75 2.6851 0.384791 2.33174 
549 1 45.5 19.5 6.5 -2.5586 -2.22643 2.37028 
550 1 48.75 22.75 6.5 1.45574 0.122603 -2.47297 
551 1 48.75 19.5 9.75 -1.56825 0.879149 -1.63449 
552 1 45.5 22.75 9.75 1.82271 -1.34657 -2.38572 
553 1 52 19.5 6.5 -2.39856 -1.6375 0.573233 
554 1 55.25 22.75 6.5 0.0967551 -2.41284 0.318855 
555 1 55.25 19.5 9.75 1.0886 -1.39111 1.7873 
556 1 52 22.75 9.75 -0.311874 2.42508 1.00839 
557 1 58.5 19.5 6.5 -0.668455 -1.60333 2.15278 
558 1 61.75 22.75 6.5 0.46135 -0.0626656 -1.77354 
559 1 61.75 19.5 9.75 -0.689141 -0.179327 1.12263 
560 1 58.5 22.75 9.75 -0.600213 -0.0934893 -1.65021 
561 1 0 26 6.5 -0.598347 -1.46128 0.510283 
562 1 3.25 29.25 6.5 0.266048 1.1002 -0.869331 
563 1 3.25 26 9.75 0.158912 0.451021 -2.70596 
564 1 0 29.25 9.75 -1.03489 -2.10183 1.98011 
565 1 6.5 26 6.5 0.20922 0.523543 -0.183967 
566 1 9.75 29.25 6.5 -0.82615 -1.0985 -0.209907 
567 1 9.75 26 9.75 -0.432367 0.920831 0.739157 
568 1 6.5 29.25 9.75 1.54142 0.162409 1.08764 
569 1 13 26 6.5 0.38591 -2.5352 0.139417 
570 1 16.25 29.25 6.5 1.61219 0.5295 1.75146 
571 1 16.25 26 9.75 -2.70614 -0.226297 2.59994 
572 1 13 29.25 9.75 -0.283038 1.611 -1.32591 
573 1 19.5 26 6.5 0.840842 1.7566 2.11128 
574 1 22.75 29.25 6.5 1.2845 2.06662 -1.86349 
575 1 22.75 26 9.75 -1.57828 1.43984 1.8983 
576 1 19.5 29.25 9.75 -0.258415 0.917525 -0.279968 
577 1 26 26 6.5 0.21742 1.98751 -0.575774 
578 1 29.25 29.25 6.5 -2.34162 0.891747 -2.62976 
579 1 29.25 26 9.75 -2.2594 2.72047 2.04152 
580 1 26 29.25 9.75 1.53979 0.0629797 -0.941804 
581 1 32.5 26 6.5 -1.54806 1.98473 1.8369 
582 1 35.75 29.25 6.5 -1.30857 1.76934 -1.86014 
583 1 35.75 26 9.75 0.245065 -2.47035 -0.752258 
584 1 32.5 29.25 9.75 -1.2686 2.56499 1.59546 
585 1 39 26 6.5 -0.975954 1.12679 -1.32136 
586 1 42.25 29.25 6.5 1.07446 0.985614 -1.36433 
587 1 42.25 26 9.75 -1.1386 0.189109 2.56093 
588 1 39 29.25 9.75 -1.50333 1.03011 -0.812023 
589 1 45.5 26 6.5 -2.11781 -1.11627 1.01903 
590 1 48.75 29.25 6.5 -1.81365 -0.00773094 -0.295546 
591 1 48.75 26 9.75 0.209997 2.6721 1.91069 
592 1 45.5 29.25 9.75 0.750946 1.77276 1.12251 
593 1 52 26 6.5 -2.72851 0.190332 1.30098 
594 1 55.25 29.25 6.5 2.34175 0.483851 -1.83075 
595 1 55.25 26 9.75 -2.22331 -1.51427 -0.878109 
596 1 52 29.25 9.75 -0.108467 1.10788 2.62502 
597 1 58.5 26 6.5 1.10166 -0.0680838 -0.110473 
598 1 61.75 29.25 6.5 1.66645 1.48521 0.902722 
599 1 61.75 26 9.75 1.51555 1.70188 -1.19577 
600 1 58.5 29.25 9.75 0.983907 0.814434 1.60162 
601 1 0 32.5 6.5 -1.1667 2.55619 1.07895 
602 1 3.25 35.75 6.5 1.56526 2.57056 2.54879 
603 1 3.25 32.5 9.75 1.85587 -0.263947 2.53444 
604 1 0 35.75 9.75 0.616762 -0.763226 0.169542 
605 1 6.5 32.5 6.5 0.652731 -1.66818 -2.19805 
606 1 9.75 35.75 6.5 -0.930602 -0.265279 1.96363 
607 1 9.75 32.5 9.75 1.51937 0.383856 -2.46383 
608 1 6.5 35.75 9.75 -0.636723 2.63707 2.1241 
609 1 13 32.5 6.5 -1.5026 2.40638 -2.26347 
610 1 16.25 35.75 6.5 1.33627 -0.642463 0.758231 
611 1 16.25 32.5 9.75 0.304856 -1.19724 -1.59694 
612 1 13 35.75 9.75 0.185179 0.107134 -0.659073 
613 1 19.5 32.5 6.5 -0.557849 -2.62849 -2.3171 
614 1 22.75 35.75 6.5 0.0538439 1.8258 -1.99001 
615 1 22.75 32.5 9.75 -0.766128 -1.38994 -0.411674 
616 1 19.5 35.75 9.75 1.15109 1.60461 0.388104 
617 1 26 32.5 6.5 -2.30624 1.02471 1.12605 
618 1 29.25 35.75 6.5 2.23648 -1.58179 -1.25095 
619 1 29.25 32.5 9.75 0.774163 -0.748278 0.493902 
620 1 26 35.75 9.75 -2.31768 -0.356967 -0.861748 
621 1 32.5 32.5 6.5 2.15663 -1.78792 -1.95411 
622 1 35.75 35.75 6.5 2.56981 -0.963627 -2.56066 
623 1 35.75 32.5 9.75 -2.70742 0.0947526 -1.47484 
624 1 32.5 35.75 9.75 1.44435 -0.375708 0.510734 
625 1 39 32.5 6.5 2.39331 -0.16053 0.675646 
626 1 42.25 35.75 6.5 -2.25917 1.13393 -1.36258 
627 1 42.25 32.5 9.75 0.923619 2.08743 -1.08445 
628 1 39 35.75 9.75 0.928032 -0.0956918 -0.485267 
629 1 45.5 32.5 6.5 2.44816 -0.118376 0.0829566 
630 1 48.75 35.75 6.5 1.76491 -1.88082 2.02839 
631 1 48.75 32.5 9.75 -0.985905 -2.47978 -1.11328 
632 1 45.5 35.75 9.75 1.84542 -1.46255 1.08657 
633 1 52 32.5 6.5 -1.27548 1.54154 -1.38802 
634 1 55.25 35.75 6.5 -1.19362 -2.59478 2.35736 
635 1 55.25 32.5 9.75 2.61384 2.60829 -1.5226 
636 1 52 35.75 9.75 0.486066 0.79176 2.328 
637 1 58.5 32.5 6.5 0.0455125 -1.83685 -0.800641 
638 1 61.75 35.75 6.5 -1.71674 -2.15317 1.04512 